 Gaussian 16, Revision C.01,
 Gaussian 16:  EM64M-G16RevC.01  3-Jul-2019

 ---------------------------
 #p nmr=giao rb3lyp/6-31g(d)
 ---------------------------

 -------------------
 Title Card Required
 -------------------
 Symbolic Z-matrix:
 Charge =  0 Multiplicity = 1

                         Standard orientation:
 ---------------------------------------------------------------------
 Center     Atomic      Atomic             Coordinates (Angstroms)
 Number     Number       Type             X           Y           Z
 ---------------------------------------------------------------------
      1          6           0       -2.435184   -0.000005    0.000007
      2          1           0       -2.791788   -0.870163   -0.510444
      3          1           0       -2.791920    0.877098   -0.498321
      4          1           0       -2.791845   -0.007031    1.008790
      5          6           0       -0.895184    0.000111   -0.000001
      6          6           0       -0.197572   -1.208114   -0.000368
      7          6           0       -0.197770    1.208068    0.000248
      8          6           0        1.197140   -1.208287    0.000195
      9          1           0       -0.747693   -2.160274    0.000213
     10          6           0        1.197368    1.208069   -0.000184
     11          1           0       -0.747439    2.160430    0.000358
     12          6           0        1.894880    0.000173   -0.000072
     13          1           0        1.747075   -2.160583    0.000540
     14          1           0        1.746981    2.160644   -0.000403
     15          1           0        2.994560   -0.000213    0.000313
 ---------------------------------------------------------------------

 SCF Done:  E(RB3LYP) =  -271.563934317     A.U. after   13 cycles

      1  C    Isotropic =   169.4485   Anisotropy =    36.5249

      2  H    Isotropic =    30.7862   Anisotropy =     7.2316

      3  H    Isotropic =    30.7983   Anisotropy =     7.2195

      4  H    Isotropic =    30.3904   Anisotropy =     7.9185

      5  C    Isotropic =    58.9358   Anisotropy =   177.5489

      6  C    Isotropic =    68.1550   Anisotropy =   147.8483

      7  C    Isotropic =    68.1348   Anisotropy =   147.6677

      8  C    Isotropic =    67.6498   Anisotropy =   162.5224

      9  H    Isotropic =    24.9697   Anisotropy =     6.4329

     10  C    Isotropic =    67.6709   Anisotropy =   162.4887

     11  H    Isotropic =    24.9721   Anisotropy =     6.4252

     12  C    Isotropic =    70.8314   Anisotropy =   161.3253

     13  H    Isotropic =    24.9066   Anisotropy =     4.4224

     14  H    Isotropic =    24.9080   Anisotropy =     4.4203

     15  H    Isotropic =    25.0295   Anisotropy =     4.0543

 The electronic state is 1-A.
 Alpha  occ. eigenvalues --  -10.19193 -10.18590 -10.18584 -10.18365 -10.18283
 Alpha  occ. eigenvalues --  -10.18281 -10.17424  -0.84837  -0.76332  -0.73716
 Alpha  occ. eigenvalues --   -0.68146  -0.59753  -0.57605  -0.50270  -0.45248
 Alpha  occ. eigenvalues --   -0.44618  -0.42179  -0.41442  -0.39645  -0.38560
 Alpha  occ. eigenvalues --   -0.34950  -0.33526  -0.32949  -0.24441  -0.23612
 Alpha virt. eigenvalues --    0.00476   0.00907   0.09171   0.12512   0.13677
 Alpha virt. eigenvalues --    0.15163   0.16233   0.17901   0.18675   0.19013
 Alpha virt. eigenvalues --    0.20914   0.23251   0.31048   0.32005   0.33358

 Mulliken charges:
               1
     1  C   -0.518577
     2  H    0.158424
     3  H    0.158279
     4  H    0.169005
     5  C    0.151452
     6  C   -0.173899
     7  C   -0.174127
     8  C   -0.130060
     9  H    0.121502
    10  C   -0.129976
    11  H    0.121517
    12  C   -0.131419
    13  H    0.126372
    14  H    0.126341
    15  H    0.125168
 Sum of Mulliken charges =  -0.00000

 Dipole moment (field-independent basis, Debye):
    X=             -0.3266    Y=             -0.0010    Z=              0.0341  Tot=              0.3284
 Quadrupole moment (field-independent basis, Debye-Ang):
   XX=            -38.0817   YY=            -38.1487   ZZ=            -44.7707
   XY=              0.0003   XZ=             -0.0612   YZ=             -0.0016

 Normal termination of Gaussian 16 at Thu Nov 23 21:25:00 2023.
