 Gaussian 16, Revision B.01,
 Gaussian 16:  ES64L-G16RevB.01 20-Dec-2017

 --------------------------------------------------
 #p nmr=giao ub3lyp/6-311+g(2d,p) geom=connectivity
 --------------------------------------------------

 --------------------------
 File Created by py.Aroma 3
 --------------------------
 Symbolic Z-matrix:
 Charge =  0 Multiplicity = 3

                          Input orientation:
 ---------------------------------------------------------------------
 Center     Atomic      Atomic             Coordinates (Angstroms)
 Number     Number       Type             X           Y           Z
 ---------------------------------------------------------------------
      1          1           0       -0.120733    4.586719    0.000000
      2          6           0        0.790413    3.998293    0.000000
      3          6           0        3.238257    2.475076    0.000000
      4          6           0        0.803730    2.632959    0.000000
      5          6           0        2.064461    4.625664    0.000000
      6          6           0        3.238257    3.895229    0.000000
      7          6           0        2.007437    1.883896    0.000000
      8          1           0        2.116800    5.709840    0.000000
      9          1           0        4.187840    4.421064    0.000000
     10          1           0        4.168621    1.917515    0.000000
     11          6           0        0.008734    1.349887    0.000000
     12          6           0       -0.008734   -1.349887    0.000000
     13          6           0       -1.260025    0.784186    0.000000
     14          6           0        1.207330    0.603974    0.000000
     15          6           0        1.260025   -0.784186    0.000000
     16          6           0       -1.207330   -0.603974    0.000000
     17          1           0       -2.180164    1.356936    0.000000
     18          1           0        2.180164   -1.356936    0.000000
     19          6           0       -0.803730   -2.632959    0.000000
     20          6           0       -3.238257   -3.895229    0.000000
     21          6           0       -2.007437   -1.883896    0.000000
     22          6           0       -0.790413   -3.998293    0.000000
     23          6           0       -2.064461   -4.625664    0.000000
     24          6           0       -3.238257   -2.475076    0.000000
     25          1           0        0.120733   -4.586719    0.000000
     26          1           0       -2.116800   -5.709840    0.000000
     27          1           0       -4.168621   -1.917515    0.000000
     28          1           0       -4.187840   -4.421064    0.000000
     29          0           0       -2.651359   -4.260446    1.000000
     30          0           0       -2.545694   -4.090638    1.000000
     31          0           0       -2.440029   -3.920830    1.000000
     32          0           0       -2.334364   -3.751021    1.000000
     33          0           0       -2.228699   -3.581213    1.000000
     34          0           0       -2.123034   -3.411404    1.000000
     35          0           0       -2.017369   -3.241596    1.000000
     36          0           0       -1.911704   -3.071787    1.000000
     37          0           0       -1.806039   -2.901979    1.000000
     38          0           0       -1.700374   -2.732170    1.000000
     39          0           0       -1.594709   -2.562362    1.000000
     40          0           0       -1.489045   -2.392553    1.000000
     41          0           0       -1.383377   -2.222746    1.000000
     42          0           0       -1.277700   -2.052946    1.000000
     43          0           0       -1.172023   -1.883145    1.000000
     44          0           0       -1.066346   -1.713344    1.000000
     45          0           0       -0.960668   -1.543543    1.000000
     46          0           0       -0.854991   -1.373742    1.000000
     47          0           0       -0.749314   -1.203941    1.000000
     48          0           0       -0.643637   -1.034140    1.000000
     49          0           0       -0.537957   -0.864341    1.000000
     50          0           0       -0.432276   -0.694542    1.000000
     51          0           0       -0.326595   -0.524744    1.000000
     52          0           0       -0.220914   -0.354945    1.000000
     53          0           0       -0.115234   -0.185147    1.000000
     54          0           0       -0.009553   -0.015348    1.000000
     55          0           0        0.096128    0.154450    1.000000
     56          0           0        0.201809    0.324249    1.000000
     57          0           0        0.307490    0.494047    1.000000
     58          0           0        0.413171    0.663846    1.000000
     59          0           0        0.518852    0.833644    1.000000
     60          0           0        0.624532    1.003443    1.000000
     61          0           0        0.730210    1.173244    1.000000
     62          0           0        0.835887    1.343045    1.000000
     63          0           0        0.941564    1.512846    1.000000
     64          0           0        1.047241    1.682647    1.000000
     65          0           0        1.152918    1.852448    1.000000
     66          0           0        1.258595    2.022249    1.000000
     67          0           0        1.364272    2.192049    1.000000
     68          0           0        1.469942    2.361855    1.000000
     69          0           0        1.575607    2.531663    1.000000
     70          0           0        1.681272    2.701472    1.000000
     71          0           0        1.786937    2.871280    1.000000
     72          0           0        1.892602    3.041089    1.000000
     73          0           0        1.998267    3.210897    1.000000
     74          0           0        2.103932    3.380706    1.000000
     75          0           0        2.209597    3.550514    1.000000
     76          0           0        2.315262    3.720323    1.000000
     77          0           0        2.420927    3.890131    1.000000
     78          0           0        2.526592    4.059940    1.000000
     79          0           0        2.632257    4.229748    1.000000
 ---------------------------------------------------------------------

 SCF Done:  E(UB3LYP) =  -691.931550636     A.U. after   15 cycles

      1  H    Isotropic =    24.3995   Anisotropy =     5.6141

      2  C    Isotropic =    59.8110   Anisotropy =   167.9016

      3  C    Isotropic =    60.0020   Anisotropy =   167.7073

      4  C    Isotropic =    31.5575   Anisotropy =   169.6781

      5  C    Isotropic =    50.5301   Anisotropy =   179.1914

      6  C    Isotropic =    50.5887   Anisotropy =   179.2846

      7  C    Isotropic =    31.5873   Anisotropy =   169.8487

      8  H    Isotropic =    24.5565   Anisotropy =     5.2186

      9  H    Isotropic =    24.5313   Anisotropy =     5.2045

     10  H    Isotropic =    24.3954   Anisotropy =     5.5790

     11  C    Isotropic =    40.1706   Anisotropy =   145.0356

     12  C    Isotropic =    40.1706   Anisotropy =   145.0356

     13  C    Isotropic =    70.6503   Anisotropy =   146.4508

     14  C    Isotropic =    40.2772   Anisotropy =   144.9497

     15  C    Isotropic =    70.6503   Anisotropy =   146.4508

     16  C    Isotropic =    40.2772   Anisotropy =   144.9497

     17  H    Isotropic =    24.6348   Anisotropy =     5.3443

     18  H    Isotropic =    24.6348   Anisotropy =     5.3443

     19  C    Isotropic =    31.5575   Anisotropy =   169.6781

     20  C    Isotropic =    50.5887   Anisotropy =   179.2846

     21  C    Isotropic =    31.5873   Anisotropy =   169.8487

     22  C    Isotropic =    59.8110   Anisotropy =   167.9016

     23  C    Isotropic =    50.5301   Anisotropy =   179.1914

     24  C    Isotropic =    60.0020   Anisotropy =   167.7073

     25  H    Isotropic =    24.3995   Anisotropy =     5.6141

     26  H    Isotropic =    24.5565   Anisotropy =     5.2186

     27  H    Isotropic =    24.3954   Anisotropy =     5.5790

     28  H    Isotropic =    24.5313   Anisotropy =     5.2045

     29  Bq   Isotropic =    13.6365   Anisotropy =    22.7903

     30  Bq   Isotropic =    13.6539   Anisotropy =    23.7309

     31  Bq   Isotropic =    12.2408   Anisotropy =    23.2424

     32  Bq   Isotropic =    10.2581   Anisotropy =    21.8085

     33  Bq   Isotropic =     8.4942   Anisotropy =    20.1870

     34  Bq   Isotropic =     7.3491   Anisotropy =    18.9682

     35  Bq   Isotropic =     6.9259   Anisotropy =    18.4755

     36  Bq   Isotropic =     7.2230   Anisotropy =    18.7794

     37  Bq   Isotropic =     8.2017   Anisotropy =    19.7024

     38  Bq   Isotropic =     9.6801   Anisotropy =    20.8245

     39  Bq   Isotropic =    11.1572   Anisotropy =    21.4504

     40  Bq   Isotropic =    11.8309   Anisotropy =    20.6917

     41  Bq   Isotropic =    11.0462   Anisotropy =    17.9505

     42  Bq   Isotropic =     8.9068   Anisotropy =    13.5388

     43  Bq   Isotropic =     6.3449   Anisotropy =     8.6061

     44  Bq   Isotropic =     4.5056   Anisotropy =     4.3634

     45  Bq   Isotropic =     4.0867   Anisotropy =     2.8678

     46  Bq   Isotropic =     5.0681   Anisotropy =     6.0483

     47  Bq   Isotropic =     6.7533   Anisotropy =     9.9457

     48  Bq   Isotropic =     8.0783   Anisotropy =    12.6813

     49  Bq   Isotropic =     8.2167   Anisotropy =    13.2480

     50  Bq   Isotropic =     7.1118   Anisotropy =    11.7724

     51  Bq   Isotropic =     5.3849   Anisotropy =     9.2207

     52  Bq   Isotropic =     3.7654   Anisotropy =     6.5699

     53  Bq   Isotropic =     2.6855   Anisotropy =     4.4281

     54  Bq   Isotropic =     2.2796   Anisotropy =     3.4074

     55  Bq   Isotropic =     2.5612   Anisotropy =     4.1364

     56  Bq   Isotropic =     3.5233   Anisotropy =     6.1311

     57  Bq   Isotropic =     5.0667   Anisotropy =     8.7266

     58  Bq   Isotropic =     6.8223   Anisotropy =    11.3581

     59  Bq   Isotropic =     8.0971   Anisotropy =    13.1109

     60  Bq   Isotropic =     8.2047   Anisotropy =    12.9569

     61  Bq   Isotropic =     7.0509   Anisotropy =    10.5680

     62  Bq   Isotropic =     5.3495   Anisotropy =     6.7688

     63  Bq   Isotropic =     4.1727   Anisotropy =     3.2356

     64  Bq   Isotropic =     4.3154   Anisotropy =     3.7635

     65  Bq   Isotropic =     5.9299   Anisotropy =     7.7577

     66  Bq   Isotropic =     8.4397   Anisotropy =    12.6465

     67  Bq   Isotropic =    10.7413   Anisotropy =    17.2506

     68  Bq   Isotropic =    11.8068   Anisotropy =    20.3483

     69  Bq   Isotropic =    11.3634   Anisotropy =    21.4412

     70  Bq   Isotropic =     9.9680   Anisotropy =    20.9992

     71  Bq   Isotropic =     8.4415   Anisotropy =    19.9069

     72  Bq   Isotropic =     7.3518   Anisotropy =    18.9093

     73  Bq   Isotropic =     6.9268   Anisotropy =    18.4734

     74  Bq   Isotropic =     7.2187   Anisotropy =    18.8200

     75  Bq   Isotropic =     8.2356   Anisotropy =    19.9240

     76  Bq   Isotropic =     9.9060   Anisotropy =    21.5085

     77  Bq   Isotropic =    11.8973   Anisotropy =    23.0312

     78  Bq   Isotropic =    13.4831   Anisotropy =    23.7427

     79  Bq   Isotropic =    13.7705   Anisotropy =    23.0649

 Alpha  occ. eigenvalues --  -10.19563 -10.19561 -10.19516 -10.19513 -10.19153
 Alpha  occ. eigenvalues --  -10.19153 -10.19107 -10.19107 -10.18624 -10.18621
 Alpha  occ. eigenvalues --  -10.18596 -10.18596 -10.18569 -10.18569 -10.18541
 Alpha  occ. eigenvalues --  -10.18540 -10.18510 -10.18510  -0.92528  -0.90415
 Alpha  occ. eigenvalues --   -0.85324  -0.82751  -0.77370  -0.77170  -0.76232
 Alpha  occ. eigenvalues --   -0.75248  -0.70173  -0.67482  -0.63129  -0.60378
 Alpha  occ. eigenvalues --   -0.59709  -0.57401  -0.56127  -0.53836  -0.51880
 Alpha  occ. eigenvalues --   -0.48768  -0.48168  -0.47398  -0.46049  -0.45937
 Alpha  occ. eigenvalues --   -0.44356  -0.43737  -0.43026  -0.41995  -0.41140
 Alpha  occ. eigenvalues --   -0.41027  -0.39029  -0.36671  -0.36256  -0.35244
 Alpha  occ. eigenvalues --   -0.34075  -0.33992  -0.33283  -0.32654  -0.29914
 Alpha  occ. eigenvalues --   -0.27921  -0.26020  -0.25875  -0.20172  -0.12585
 Alpha virt. eigenvalues --   -0.05702  -0.03983  -0.00831   0.00075   0.00569
 Alpha virt. eigenvalues --    0.01244   0.01808   0.02003   0.02267   0.02619
 Alpha virt. eigenvalues --    0.03530   0.03751   0.04629   0.05178   0.05184

  Beta  occ. eigenvalues --  -10.19036 -10.19032 -10.19006 -10.19004 -10.18994
  Beta  occ. eigenvalues --  -10.18985 -10.18960 -10.18957 -10.18819 -10.18819
  Beta  occ. eigenvalues --  -10.18526 -10.18526 -10.18525 -10.18525 -10.18423
  Beta  occ. eigenvalues --  -10.18423 -10.18364 -10.18364  -0.91582  -0.89659
  Beta  occ. eigenvalues --   -0.84810  -0.82045  -0.76970  -0.76849  -0.75897
  Beta  occ. eigenvalues --   -0.75006  -0.69393  -0.67145  -0.62226  -0.59954
  Beta  occ. eigenvalues --   -0.59176  -0.57230  -0.55359  -0.53712  -0.51581
  Beta  occ. eigenvalues --   -0.48501  -0.47727  -0.47237  -0.45984  -0.45796
  Beta  occ. eigenvalues --   -0.44175  -0.42772  -0.41758  -0.41406  -0.40937
  Beta  occ. eigenvalues --   -0.39187  -0.38512  -0.36402  -0.34949  -0.34680
  Beta  occ. eigenvalues --   -0.33782  -0.33633  -0.33065  -0.29936  -0.28571
  Beta  occ. eigenvalues --   -0.26811  -0.25312  -0.24132
  Beta virt. eigenvalues --   -0.13861  -0.06210  -0.04983  -0.02107   0.00096
  Beta virt. eigenvalues --    0.00458   0.00579   0.01225   0.01828   0.02261
  Beta virt. eigenvalues --    0.03526   0.03763   0.03810   0.04713   0.04794

 Mulliken charges and spin densities:
               1          2
     1  H    0.098474  -0.002434
     2  C   -0.448166   0.032721
     3  C   -0.447988   0.032728
     4  C    0.208537   0.068248
     5  C   -0.007885   0.115887
     6  C   -0.007826   0.115875
     7  C    0.208227   0.068264
     8  H    0.088029  -0.008974
     9  H    0.088029  -0.008973
    10  H    0.098487  -0.002434
    11  C    0.246673   0.356982
    12  C    0.246673   0.356982
    13  C   -0.473413  -0.131690
    14  C    0.246792   0.357018
    15  C   -0.473413  -0.131690
    16  C    0.246792   0.357018
    17  H    0.102028   0.006780
    18  H    0.102028   0.006780
    19  C    0.208537   0.068248
    20  C   -0.007826   0.115875
    21  C    0.208227   0.068264
    22  C   -0.448166   0.032721
    23  C   -0.007885   0.115887
    24  C   -0.447988   0.032728
    25  H    0.098474  -0.002434
    26  H    0.088029  -0.008974
    27  H    0.098487  -0.002434
    28  H    0.088029  -0.008973
    29  Bq   0.000000   0.000000
    30  Bq   0.000000   0.000000
    31  Bq   0.000000   0.000000
    32  Bq   0.000000   0.000000
    33  Bq   0.000000   0.000000
    34  Bq   0.000000   0.000000
    35  Bq   0.000000   0.000000
    36  Bq   0.000000   0.000000
    37  Bq   0.000000   0.000000
    38  Bq   0.000000   0.000000
    39  Bq   0.000000   0.000000
    40  Bq   0.000000   0.000000
    41  Bq   0.000000   0.000000
    42  Bq   0.000000   0.000000
    43  Bq   0.000000   0.000000
    44  Bq   0.000000   0.000000
    45  Bq   0.000000   0.000000
    46  Bq   0.000000   0.000000
    47  Bq   0.000000   0.000000
    48  Bq   0.000000   0.000000
    49  Bq   0.000000   0.000000
    50  Bq   0.000000   0.000000
    51  Bq   0.000000   0.000000
    52  Bq   0.000000   0.000000
    53  Bq   0.000000   0.000000
    54  Bq   0.000000   0.000000
    55  Bq   0.000000   0.000000
    56  Bq   0.000000   0.000000
    57  Bq   0.000000   0.000000
    58  Bq   0.000000   0.000000
    59  Bq   0.000000   0.000000
    60  Bq   0.000000   0.000000
    61  Bq   0.000000   0.000000
    62  Bq   0.000000   0.000000
    63  Bq   0.000000   0.000000
    64  Bq   0.000000   0.000000
    65  Bq   0.000000   0.000000
    66  Bq   0.000000   0.000000
    67  Bq   0.000000   0.000000
    68  Bq   0.000000   0.000000
    69  Bq   0.000000   0.000000
    70  Bq   0.000000   0.000000
    71  Bq   0.000000   0.000000
    72  Bq   0.000000   0.000000
    73  Bq   0.000000   0.000000
    74  Bq   0.000000   0.000000
    75  Bq   0.000000   0.000000
    76  Bq   0.000000   0.000000
    77  Bq   0.000000   0.000000
    78  Bq   0.000000   0.000000
    79  Bq   0.000000   0.000000
 Sum of Mulliken charges =  -0.00000   2.00000

 Dipole moment (field-independent basis, Debye):
    X=              0.0000    Y=              0.0000    Z=              0.0000  Tot=              0.0000
 Quadrupole moment (field-independent basis, Debye-Ang):
   XX=            -90.0510   YY=            -88.4961   ZZ=           -110.9876
   XY=              1.5775   XZ=             -0.0000   YZ=              0.0000

 Normal termination of Gaussian 16 at Wed Mar 15 11:25:36 2023.
