 Gaussian 16, Revision B.01,
 Gaussian 16:  ES64L-G16RevB.01 20-Dec-2017

 --------------------------------------------
 #p nmr=giao b3lyp/6-31g(d) geom=connectivity
 --------------------------------------------

 ---------------------------------
 INICS 10.00 0.20 50 // py.Aroma 4
 ---------------------------------
 Symbolic Z-matrix:
 Charge =  0 Multiplicity = 1

                          Input orientation:
 ---------------------------------------------------------------------
 Center     Atomic      Atomic             Coordinates (Angstroms)
 Number     Number       Type             X           Y           Z
 ---------------------------------------------------------------------
      1          1           0        1.362402    1.739429    1.549908
      2          6           0        1.653352    0.937935    0.875139
      3          6           0        2.403412   -1.114807   -0.839588
      4          6           0        0.701971    0.365680    0.032075
      5          6           0        2.973203    0.492484    0.860094
      6          6           0        3.351122   -0.533697    0.001787
      7          6           0        1.088574   -0.668564   -0.824345
      8          1           0        3.702924    0.946507    1.523816
      9          1           0        4.378368   -0.885411   -0.009421
     10          1           0        0.345386   -1.139499   -1.462125
     11          1           0        2.690274   -1.922759   -1.506017
     12          6           0       -0.697960    0.922221    0.006207
     13          1           0       -0.848258    1.591828    0.853998
     14          6           0       -1.039059    1.632512   -1.296872
     15          1           0       -0.945844    0.953614   -2.149202
     16          1           0       -0.339823    2.463546   -1.443610
     17          1           0       -2.058365    2.026384   -1.274198
     18         35           0       -2.025564   -0.513606    0.315139
     19          0           0       -0.166934   -6.799533    7.097019
     20          0           0       -0.123023   -6.665279    6.955429
     21          0           0       -0.079112   -6.531025    6.813839
     22          0           0       -0.035202   -6.396771    6.672249
     23          0           0        0.008709   -6.262517    6.530659
     24          0           0        0.052620   -6.128262    6.389069
     25          0           0        0.096531   -5.994008    6.247480
     26          0           0        0.140442   -5.859754    6.105890
     27          0           0        0.184352   -5.725500    5.964300
     28          0           0        0.228263   -5.591246    5.822710
     29          0           0        0.272174   -5.456992    5.681120
     30          0           0        0.316085   -5.322738    5.539530
     31          0           0        0.359996   -5.188484    5.397941
     32          0           0        0.403906   -5.054230    5.256351
     33          0           0        0.447817   -4.919976    5.114761
     34          0           0        0.491728   -4.785722    4.973171
     35          0           0        0.535639   -4.651467    4.831581
     36          0           0        0.579550   -4.517213    4.689991
     37          0           0        0.623460   -4.382959    4.548402
     38          0           0        0.667371   -4.248705    4.406812
     39          0           0        0.711282   -4.114451    4.265222
     40          0           0        0.755193   -3.980197    4.123632
     41          0           0        0.799104   -3.845943    3.982042
     42          0           0        0.843014   -3.711689    3.840452
     43          0           0        0.886925   -3.577435    3.698863
     44          0           0        0.930836   -3.443181    3.557273
     45          0           0        0.974747   -3.308926    3.415683
     46          0           0        1.018657   -3.174672    3.274093
     47          0           0        1.062568   -3.040418    3.132503
     48          0           0        1.106479   -2.906164    2.990913
     49          0           0        1.150390   -2.771910    2.849324
     50          0           0        1.194301   -2.637656    2.707734
     51          0           0        1.238211   -2.503402    2.566144
     52          0           0        1.282122   -2.369148    2.424554
     53          0           0        1.326033   -2.234894    2.282964
     54          0           0        1.369944   -2.100640    2.141374
     55          0           0        1.413855   -1.966386    1.999785
     56          0           0        1.457765   -1.832131    1.858195
     57          0           0        1.501676   -1.697877    1.716605
     58          0           0        1.545587   -1.563623    1.575015
     59          0           0        1.589498   -1.429369    1.433425
     60          0           0        1.633409   -1.295115    1.291835
     61          0           0        1.677319   -1.160861    1.150246
     62          0           0        1.721230   -1.026607    1.008656
     63          0           0        1.765141   -0.892353    0.867066
     64          0           0        1.809052   -0.758099    0.725476
     65          0           0        1.852963   -0.623845    0.583886
     66          0           0        1.896873   -0.489590    0.442296
     67          0           0        1.940784   -0.355336    0.300707
     68          0           0        1.984695   -0.221082    0.159117
     69          0           0        2.028606   -0.086828    0.017527
     70          0           0        2.072516    0.047426   -0.124063
     71          0           0        2.116427    0.181680   -0.265653
     72          0           0        2.160338    0.315934   -0.407242
     73          0           0        2.204249    0.450188   -0.548832
     74          0           0        2.248160    0.584442   -0.690422
     75          0           0        2.292070    0.718696   -0.832012
     76          0           0        2.335981    0.852951   -0.973602
     77          0           0        2.379892    0.987205   -1.115192
     78          0           0        2.423803    1.121459   -1.256781
     79          0           0        2.467714    1.255713   -1.398371
     80          0           0        2.511624    1.389967   -1.539961
     81          0           0        2.555535    1.524221   -1.681551
     82          0           0        2.599446    1.658475   -1.823141
     83          0           0        2.643357    1.792729   -1.964731
     84          0           0        2.687268    1.926983   -2.106320
     85          0           0        2.731178    2.061237   -2.247910
     86          0           0        2.775089    2.195491   -2.389500
     87          0           0        2.819000    2.329746   -2.531090
     88          0           0        2.862911    2.464000   -2.672680
     89          0           0        2.906821    2.598254   -2.814270
     90          0           0        2.950732    2.732508   -2.955859
     91          0           0        2.994643    2.866762   -3.097449
     92          0           0        3.038554    3.001016   -3.239039
     93          0           0        3.082465    3.135270   -3.380629
     94          0           0        3.126375    3.269524   -3.522219
     95          0           0        3.170286    3.403778   -3.663809
     96          0           0        3.214197    3.538032   -3.805398
     97          0           0        3.258108    3.672287   -3.946988
     98          0           0        3.302019    3.806541   -4.088578
     99          0           0        3.345929    3.940795   -4.230168
    100          0           0        3.389840    4.075049   -4.371758
    101          0           0        3.433751    4.209303   -4.513348
    102          0           0        3.477662    4.343557   -4.654937
    103          0           0        3.521573    4.477811   -4.796527
    104          0           0        3.565483    4.612065   -4.938117
    105          0           0        3.609394    4.746319   -5.079707
    106          0           0        3.653305    4.880573   -5.221297
    107          0           0        3.697216    5.014827   -5.362887
    108          0           0        3.741127    5.149082   -5.504476
    109          0           0        3.785037    5.283336   -5.646066
    110          0           0        3.828948    5.417590   -5.787656
    111          0           0        3.872859    5.551844   -5.929246
    112          0           0        3.916770    5.686098   -6.070836
    113          0           0        3.960680    5.820352   -6.212426
    114          0           0        4.004591    5.954606   -6.354015
    115          0           0        4.048502    6.088860   -6.495605
    116          0           0        4.092413    6.223114   -6.637195
    117          0           0        4.136324    6.357368   -6.778785
    118          0           0        4.180234    6.491623   -6.920375
    119          0           0        4.224145    6.625877   -7.061965
 ---------------------------------------------------------------------

 SCF Done:  E(RB3LYP) =  -2881.98662311     A.U. after   14 cycles

      1  H    Isotropic =    25.3286   Anisotropy =     7.3707

      2  C    Isotropic =    71.2473   Anisotropy =   141.9868

      3  C    Isotropic =    68.2901   Anisotropy =   166.2538

      4  C    Isotropic =    53.1825   Anisotropy =   176.5230

      5  C    Isotropic =    69.7176   Anisotropy =   163.0263

      6  C    Isotropic =    69.3635   Anisotropy =   166.3340

      7  C    Isotropic =    68.8689   Anisotropy =   169.0521

      8  H    Isotropic =    25.1495   Anisotropy =     4.4407

      9  H    Isotropic =    25.0975   Anisotropy =     3.9643

     10  H    Isotropic =    24.5277   Anisotropy =    10.6902

     11  H    Isotropic =    24.9476   Anisotropy =     5.1495

     12  C    Isotropic =   129.6158   Anisotropy =    38.8102

     13  H    Isotropic =    27.5296   Anisotropy =     9.6906

     14  C    Isotropic =   158.8781   Anisotropy =    34.6660

     15  H    Isotropic =    30.3036   Anisotropy =     5.9561

     16  H    Isotropic =    30.8074   Anisotropy =     9.4951

     17  H    Isotropic =    30.3673   Anisotropy =     9.1649

     18  Br   Isotropic =  2178.7041   Anisotropy =  1209.1406

     19  Bq   Isotropic =     0.0537   Anisotropy =     0.5726

     20  Bq   Isotropic =     0.0571   Anisotropy =     0.6048

     21  Bq   Isotropic =     0.0607   Anisotropy =     0.6394

     22  Bq   Isotropic =     0.0647   Anisotropy =     0.6766

     23  Bq   Isotropic =     0.0690   Anisotropy =     0.7166

     24  Bq   Isotropic =     0.0737   Anisotropy =     0.7597

     25  Bq   Isotropic =     0.0789   Anisotropy =     0.8062

     26  Bq   Isotropic =     0.0845   Anisotropy =     0.8563

     27  Bq   Isotropic =     0.0906   Anisotropy =     0.9105

     28  Bq   Isotropic =     0.0974   Anisotropy =     0.9692

     29  Bq   Isotropic =     0.1048   Anisotropy =     1.0327

     30  Bq   Isotropic =     0.1130   Anisotropy =     1.1016

     31  Bq   Isotropic =     0.1221   Anisotropy =     1.1764

     32  Bq   Isotropic =     0.1321   Anisotropy =     1.2576

     33  Bq   Isotropic =     0.1433   Anisotropy =     1.3461

     34  Bq   Isotropic =     0.1557   Anisotropy =     1.4425

     35  Bq   Isotropic =     0.1697   Anisotropy =     1.5477

     36  Bq   Isotropic =     0.1853   Anisotropy =     1.6627

     37  Bq   Isotropic =     0.2029   Anisotropy =     1.7884

     38  Bq   Isotropic =     0.2227   Anisotropy =     1.9262

     39  Bq   Isotropic =     0.2452   Anisotropy =     2.0774

     40  Bq   Isotropic =     0.2708   Anisotropy =     2.2436

     41  Bq   Isotropic =     0.3001   Anisotropy =     2.4266

     42  Bq   Isotropic =     0.3338   Anisotropy =     2.6287

     43  Bq   Isotropic =     0.3726   Anisotropy =     2.8522

     44  Bq   Isotropic =     0.4176   Anisotropy =     3.1004

     45  Bq   Isotropic =     0.4700   Anisotropy =     3.3767

     46  Bq   Isotropic =     0.5315   Anisotropy =     3.6858

     47  Bq   Isotropic =     0.6039   Anisotropy =     4.0334

     48  Bq   Isotropic =     0.6897   Anisotropy =     4.4268

     49  Bq   Isotropic =     0.7921   Anisotropy =     4.8752

     50  Bq   Isotropic =     0.9151   Anisotropy =     5.3907

     51  Bq   Isotropic =     1.0637   Anisotropy =     5.9889

     52  Bq   Isotropic =     1.2447   Anisotropy =     6.6897

     53  Bq   Isotropic =     1.4669   Anisotropy =     7.5182

     54  Bq   Isotropic =     1.7417   Anisotropy =     8.5046

     55  Bq   Isotropic =     2.0846   Anisotropy =     9.6835

     56  Bq   Isotropic =     2.5158   Anisotropy =    11.0905

     57  Bq   Isotropic =     3.0615   Anisotropy =    12.7558

     58  Bq   Isotropic =     3.7535   Anisotropy =    14.6924

     59  Bq   Isotropic =     4.6260   Anisotropy =    16.8776

     60  Bq   Isotropic =     5.7054   Anisotropy =    19.2265

     61  Bq   Isotropic =     6.9921   Anisotropy =    21.5563

     62  Bq   Isotropic =     8.4303   Anisotropy =    23.5436

     63  Bq   Isotropic =     9.8777   Anisotropy =    24.6878

     64  Bq   Isotropic =    11.0911   Anisotropy =    24.3330

     65  Bq   Isotropic =    11.7720   Anisotropy =    21.8486

     66  Bq   Isotropic =    11.7076   Anisotropy =    17.0717

     67  Bq   Isotropic =    10.9807   Anisotropy =    10.8942

     68  Bq   Isotropic =    10.0736   Anisotropy =     5.4386

     69  Bq   Isotropic =     9.6398   Anisotropy =     3.1755

     70  Bq   Isotropic =    10.0044   Anisotropy =     5.2725

     71  Bq   Isotropic =    10.8789   Anisotropy =    10.6399

     72  Bq   Isotropic =    11.6205   Anisotropy =    16.8515

     73  Bq   Isotropic =    11.7304   Anisotropy =    21.7471

     74  Bq   Isotropic =    11.1022   Anisotropy =    24.3772

     75  Bq   Isotropic =     9.9326   Anisotropy =    24.8641

     76  Bq   Isotropic =     8.5150   Anisotropy =    23.8201

     77  Bq   Isotropic =     7.0935   Anisotropy =    21.8974

     78  Bq   Isotropic =     5.8142   Anisotropy =    19.5996

     79  Bq   Isotropic =     4.7361   Anisotropy =    17.2561

     80  Bq   Isotropic =     3.8618   Anisotropy =    15.0558

     81  Bq   Isotropic =     3.1663   Anisotropy =    13.0896

     82  Bq   Isotropic =     2.6165   Anisotropy =    11.3854

     83  Bq   Isotropic =     2.1811   Anisotropy =     9.9346

     84  Bq   Isotropic =     1.8341   Anisotropy =     8.7105

     85  Bq   Isotropic =     1.5553   Anisotropy =     7.6797

     86  Bq   Isotropic =     1.3294   Anisotropy =     6.8096

     87  Bq   Isotropic =     1.1447   Anisotropy =     6.0708

     88  Bq   Isotropic =     0.9925   Anisotropy =     5.4390

     89  Bq   Isotropic =     0.8661   Anisotropy =     4.8944

     90  Bq   Isotropic =     0.7603   Anisotropy =     4.4212

     91  Bq   Isotropic =     0.6712   Anisotropy =     4.0073

     92  Bq   Isotropic =     0.5955   Anisotropy =     3.6428

     93  Bq   Isotropic =     0.5309   Anisotropy =     3.3203

     94  Bq   Isotropic =     0.4754   Anisotropy =     3.0335

     95  Bq   Isotropic =     0.4275   Anisotropy =     2.7775

     96  Bq   Isotropic =     0.3858   Anisotropy =     2.5483

     97  Bq   Isotropic =     0.3495   Anisotropy =     2.3424

     98  Bq   Isotropic =     0.3176   Anisotropy =     2.1570

     99  Bq   Isotropic =     0.2895   Anisotropy =     1.9897

    100  Bq   Isotropic =     0.2647   Anisotropy =     1.8385

    101  Bq   Isotropic =     0.2427   Anisotropy =     1.7014

    102  Bq   Isotropic =     0.2230   Anisotropy =     1.5769

    103  Bq   Isotropic =     0.2055   Anisotropy =     1.4638

    104  Bq   Isotropic =     0.1898   Anisotropy =     1.3607

    105  Bq   Isotropic =     0.1756   Anisotropy =     1.2667

    106  Bq   Isotropic =     0.1628   Anisotropy =     1.1807

    107  Bq   Isotropic =     0.1513   Anisotropy =     1.1021

    108  Bq   Isotropic =     0.1408   Anisotropy =     1.0300

    109  Bq   Isotropic =     0.1313   Anisotropy =     0.9639

    110  Bq   Isotropic =     0.1226   Anisotropy =     0.9031

    111  Bq   Isotropic =     0.1147   Anisotropy =     0.8471

    112  Bq   Isotropic =     0.1074   Anisotropy =     0.7955

    113  Bq   Isotropic =     0.1008   Anisotropy =     0.7479

    114  Bq   Isotropic =     0.0947   Anisotropy =     0.7039

    115  Bq   Isotropic =     0.0890   Anisotropy =     0.6632

    116  Bq   Isotropic =     0.0839   Anisotropy =     0.6255

    117  Bq   Isotropic =     0.0791   Anisotropy =     0.5905

    118  Bq   Isotropic =     0.0747   Anisotropy =     0.5580

    119  Bq   Isotropic =     0.0706   Anisotropy =     0.5278

 Alpha  occ. eigenvalues -- -482.88990 -61.85209 -56.37259 -56.36881 -56.36876
 Alpha  occ. eigenvalues --  -10.24986 -10.20350 -10.19539 -10.19407 -10.19360
 Alpha  occ. eigenvalues --  -10.19303 -10.19205 -10.19167  -8.56318  -6.51661
 Alpha  occ. eigenvalues --   -6.50437  -6.50425  -2.63231  -2.62890  -2.62880
 Alpha  occ. eigenvalues --   -2.61903  -2.61903  -0.86838  -0.82006  -0.75069
 Alpha  occ. eigenvalues --   -0.74437  -0.71953  -0.63682  -0.61075  -0.57514
 Alpha  occ. eigenvalues --   -0.51840  -0.47697  -0.46071  -0.43897  -0.43196
 Alpha  occ. eigenvalues --   -0.42302  -0.41377  -0.38372  -0.36941  -0.35496
 Alpha  occ. eigenvalues --   -0.34709  -0.33728  -0.27345  -0.26676  -0.25511
 Alpha  occ. eigenvalues --   -0.24490
 Alpha virt. eigenvalues --   -0.02260  -0.00397   0.02783   0.08597   0.10765
 Alpha virt. eigenvalues --    0.11855   0.14893   0.15311   0.15515   0.16282
 Alpha virt. eigenvalues --    0.17111   0.19053   0.19841   0.22384   0.23941

 Mulliken charges:
               1
     1  H    0.128644
     2  C   -0.185638
     3  C   -0.131511
     4  C    0.186516
     5  C   -0.126055
     6  C   -0.126516
     7  C   -0.165525
     8  H    0.132769
     9  H    0.132363
    10  H    0.144438
    11  H    0.134060
    12  C   -0.214476
    13  H    0.180465
    14  C   -0.430335
    15  H    0.167368
    16  H    0.158476
    17  H    0.166763
    18  Br  -0.151807
    19  Bq   0.000000
    20  Bq   0.000000
    21  Bq   0.000000
    22  Bq   0.000000
    23  Bq   0.000000
    24  Bq   0.000000
    25  Bq   0.000000
    26  Bq   0.000000
    27  Bq   0.000000
    28  Bq   0.000000
    29  Bq   0.000000
    30  Bq   0.000000
    31  Bq   0.000000
    32  Bq   0.000000
    33  Bq   0.000000
    34  Bq   0.000000
    35  Bq   0.000000
    36  Bq   0.000000
    37  Bq   0.000000
    38  Bq   0.000000
    39  Bq   0.000000
    40  Bq   0.000000
    41  Bq   0.000000
    42  Bq   0.000000
    43  Bq   0.000000
    44  Bq   0.000000
    45  Bq   0.000000
    46  Bq   0.000000
    47  Bq   0.000000
    48  Bq   0.000000
    49  Bq   0.000000
    50  Bq   0.000000
    51  Bq   0.000000
    52  Bq   0.000000
    53  Bq   0.000000
    54  Bq   0.000000
    55  Bq   0.000000
    56  Bq   0.000000
    57  Bq   0.000000
    58  Bq   0.000000
    59  Bq   0.000000
    60  Bq   0.000000
    61  Bq   0.000000
    62  Bq   0.000000
    63  Bq   0.000000
    64  Bq   0.000000
    65  Bq   0.000000
    66  Bq   0.000000
    67  Bq   0.000000
    68  Bq   0.000000
    69  Bq   0.000000
    70  Bq   0.000000
    71  Bq   0.000000
    72  Bq   0.000000
    73  Bq   0.000000
    74  Bq   0.000000
    75  Bq   0.000000
    76  Bq   0.000000
    77  Bq   0.000000
    78  Bq   0.000000
    79  Bq   0.000000
    80  Bq   0.000000
    81  Bq   0.000000
    82  Bq   0.000000
    83  Bq   0.000000
    84  Bq   0.000000
    85  Bq   0.000000
    86  Bq   0.000000
    87  Bq   0.000000
    88  Bq   0.000000
    89  Bq   0.000000
    90  Bq   0.000000
    91  Bq   0.000000
    92  Bq   0.000000
    93  Bq   0.000000
    94  Bq   0.000000
    95  Bq   0.000000
    96  Bq   0.000000
    97  Bq   0.000000
    98  Bq   0.000000
    99  Bq   0.000000
   100  Bq   0.000000
   101  Bq   0.000000
   102  Bq   0.000000
   103  Bq   0.000000
   104  Bq   0.000000
   105  Bq   0.000000
   106  Bq   0.000000
   107  Bq   0.000000
   108  Bq   0.000000
   109  Bq   0.000000
   110  Bq   0.000000
   111  Bq   0.000000
   112  Bq   0.000000
   113  Bq   0.000000
   114  Bq   0.000000
   115  Bq   0.000000
   116  Bq   0.000000
   117  Bq   0.000000
   118  Bq   0.000000
   119  Bq   0.000000
 Sum of Mulliken charges =  -0.00000

 Dipole moment (field-independent basis, Debye):
    X=              1.6471    Y=              1.3566    Z=             -0.5386  Tot=              2.2007
 Quadrupole moment (field-independent basis, Debye-Ang):
   XX=            -64.3057   YY=            -62.8590   ZZ=            -64.8234
   XY=             -2.3581   XZ=              1.7407   YZ=              3.1788

 Normal termination of Gaussian 16 at Mon Dec 11 21:06:00 2023.
