 Gaussian 16, Revision B.01,
 Gaussian 16:  ES64L-G16RevB.01 20-Dec-2017

 --------------------------
 #p nmr=giao b3lyp/6-31g(d)
 --------------------------

 --------------------------
 File Created by py.Aroma 4
 --------------------------
 Symbolic Z-matrix:
 Charge =  0 Multiplicity = 1

                          Input orientation:
 ---------------------------------------------------------------------
 Center     Atomic      Atomic             Coordinates (Angstroms)
 Number     Number       Type             X           Y           Z
 ---------------------------------------------------------------------
      1          6           0       -1.339000   -0.396000    0.000000
      2          6           0       -0.327000   -1.358000    0.000000
      3          6           0        1.012000   -0.962000    0.000000
      4          6           0        1.339000    0.396000    0.000000
      5          6           0        0.327000    1.358000    0.000000
      6          6           0       -1.013000    0.962000    0.000000
      7          1           0       -0.581000   -2.414000    0.000000
      8          1           0        1.800000   -1.710000    0.000000
      9          1           0        0.581000    2.414000    0.000000
     10          1           0       -1.800000    1.710000    0.000000
     11          6           0        2.816000    0.832000    0.000000
     12          6           0        3.486000    1.030000   -1.209000
     13          6           0        3.485000    1.030000    1.210000
     14          6           0        4.825000    1.426000   -1.209000
     15          1           0        2.965000    0.876000   -2.150000
     16          6           0        4.825000    1.426000    1.210000
     17          1           0        2.964000    0.876000    2.151000
     18          6           0        5.495000    1.624000    0.001000
     19          1           0        5.347000    1.581000   -2.150000
     20          1           0        5.345000    1.580000    2.151000
     21          1           0        6.537000    1.932000    0.001000
     22          6           0       -2.816000   -0.833000    0.000000
     23          6           0       -3.189000   -2.035000    0.605000
     24          6           0       -3.783000   -0.026000   -0.605000
     25          6           0       -4.528000   -2.431000    0.605000
     26          1           0       -2.436000   -2.662000    1.075000
     27          6           0       -5.122000   -0.423000   -0.605000
     28          1           0       -3.493000    0.909000   -1.076000
     29          6           0       -5.494000   -1.625000    0.000000
     30          1           0       -4.818000   -3.366000    1.076000
     31          1           0       -5.874000    0.205000   -1.076000
     32          1           0       -6.536000   -1.933000    0.000000
     33          0           0       -4.013413   -1.708509   -0.865892
     34          0           0       -4.297254   -0.749158    0.865892
     35          0           0       -0.000167    0.000000    1.000000
     36          0           0       -0.000167    0.000000   -1.000000
     37          0           0        4.438837    0.269029    0.000637
     38          0           0        3.871830    2.186971    0.000363
     39          0           0       -4.155333   -1.228833    0.000000
     40          0           0       -0.000167    0.000000    0.000000
     41          0           0        4.155333    1.228000    0.000500
 ---------------------------------------------------------------------

 SCF Done:  E(RB3LYP) =  -694.355716643     A.U. after   13 cycles

      1  C    Isotropic =    54.6331   Anisotropy =   171.6254

      2  C    Isotropic =    71.2930   Anisotropy =   154.9140

      3  C    Isotropic =    66.7818   Anisotropy =   153.7962

      4  C    Isotropic =    51.1542   Anisotropy =   170.3365

      5  C    Isotropic =    66.7456   Anisotropy =   153.9436

      6  C    Isotropic =    71.1684   Anisotropy =   155.0026

      7  H    Isotropic =    24.6553   Anisotropy =     8.3304

      8  H    Isotropic =    25.0013   Anisotropy =     8.2924

      9  H    Isotropic =    24.9999   Anisotropy =     8.2964

     10  H    Isotropic =    24.6568   Anisotropy =     8.3341

     11  C    Isotropic =    50.7512   Anisotropy =   172.4690

     12  C    Isotropic =    68.2451   Anisotropy =   155.4429

     13  C    Isotropic =    68.0636   Anisotropy =   155.5970

     14  C    Isotropic =    68.6475   Anisotropy =   165.5032

     15  H    Isotropic =    25.0510   Anisotropy =     8.4186

     16  C    Isotropic =    68.6610   Anisotropy =   165.6624

     17  H    Isotropic =    25.0455   Anisotropy =     8.4275

     18  C    Isotropic =    69.3517   Anisotropy =   166.8435

     19  H    Isotropic =    24.9362   Anisotropy =     4.5183

     20  H    Isotropic =    24.9504   Anisotropy =     4.5394

     21  H    Isotropic =    24.9475   Anisotropy =     3.8904

     22  C    Isotropic =    53.9214   Anisotropy =   172.3901

     23  C    Isotropic =    71.0251   Anisotropy =   156.1835

     24  C    Isotropic =    70.8813   Anisotropy =   156.3450

     25  C    Isotropic =    67.3006   Anisotropy =   165.0985

     26  H    Isotropic =    24.6173   Anisotropy =     8.8004

     27  C    Isotropic =    67.1808   Anisotropy =   165.1215

     28  H    Isotropic =    24.6153   Anisotropy =     8.8103

     29  C    Isotropic =    69.5185   Anisotropy =   164.6664

     30  H    Isotropic =    24.8810   Anisotropy =     4.9964

     31  H    Isotropic =    24.8683   Anisotropy =     5.0013

     32  H    Isotropic =    25.0203   Anisotropy =     4.2592

     33  Bq   Isotropic =    10.5037   Anisotropy =    23.7696

     34  Bq   Isotropic =    10.5015   Anisotropy =    23.7685

     35  Bq   Isotropic =    10.2674   Anisotropy =    23.7782

     36  Bq   Isotropic =    10.2675   Anisotropy =    23.7792

     37  Bq   Isotropic =    10.9161   Anisotropy =    26.5969

     38  Bq   Isotropic =    10.9028   Anisotropy =    26.5579

     39  Bq   Isotropic =     8.8358   Anisotropy =     2.8694

     40  Bq   Isotropic =     8.7754   Anisotropy =     3.3415

     41  Bq   Isotropic =     9.5542   Anisotropy =     6.7518

 Alpha  occ. eigenvalues --  -10.19890 -10.19864 -10.19695 -10.19673 -10.18968
 Alpha  occ. eigenvalues --  -10.18957 -10.18911 -10.18907 -10.18886 -10.18869
 Alpha  occ. eigenvalues --  -10.18835 -10.18828 -10.18791 -10.18776 -10.18776
 Alpha  occ. eigenvalues --  -10.18769 -10.18736 -10.18728  -0.86687  -0.85394
 Alpha  occ. eigenvalues --   -0.83988  -0.77886  -0.74815  -0.74458  -0.74175
 Alpha  occ. eigenvalues --   -0.73961  -0.70702  -0.62230  -0.61883  -0.60158
 Alpha  occ. eigenvalues --   -0.58972  -0.58940  -0.56770  -0.52957  -0.51364
 Alpha  occ. eigenvalues --   -0.48165  -0.46746  -0.46081  -0.44620  -0.44425
 Alpha  occ. eigenvalues --   -0.43930  -0.43259  -0.42671  -0.41852  -0.41377
 Alpha  occ. eigenvalues --   -0.41004  -0.37545  -0.37482  -0.36184  -0.35428
 Alpha  occ. eigenvalues --   -0.35167  -0.34157  -0.34005  -0.33462  -0.31973
 Alpha  occ. eigenvalues --   -0.27115  -0.25229  -0.24888  -0.24607  -0.24492
 Alpha  occ. eigenvalues --   -0.22182
 Alpha virt. eigenvalues --   -0.02294  -0.01052  -0.00010   0.00248   0.00979
 Alpha virt. eigenvalues --    0.03379   0.09206   0.09702   0.11098   0.12368
 Alpha virt. eigenvalues --    0.14098   0.14725   0.15083   0.15914   0.15927

 Mulliken charges:
               1
     1  C    0.097734
     2  C   -0.178992
     3  C   -0.163946
     4  C    0.049318
     5  C   -0.163964
     6  C   -0.179183
     7  H    0.134257
     8  H    0.135909
     9  H    0.135945
    10  H    0.134240
    11  C    0.040569
    12  C   -0.153628
    13  C   -0.153844
    14  C   -0.132891
    15  H    0.134488
    16  C   -0.132749
    17  H    0.134563
    18  C   -0.125253
    19  H    0.130089
    20  H    0.130054
    21  H    0.128337
    22  C    0.091207
    23  C   -0.173798
    24  C   -0.173803
    25  C   -0.136648
    26  H    0.132641
    27  C   -0.136709
    28  H    0.132740
    29  C   -0.125171
    30  H    0.130146
    31  H    0.130077
    32  H    0.128266
    33  Bq   0.000000
    34  Bq   0.000000
    35  Bq   0.000000
    36  Bq   0.000000
    37  Bq   0.000000
    38  Bq   0.000000
    39  Bq   0.000000
    40  Bq   0.000000
    41  Bq   0.000000
 Sum of Mulliken charges =  -0.00000

 Dipole moment (field-independent basis, Debye):
    X=              0.0197    Y=              0.0069    Z=              0.0005  Tot=              0.0209
 Quadrupole moment (field-independent basis, Debye-Ang):
   XX=            -91.7701   YY=            -98.6286   ZZ=           -102.5975
   XY=              2.2285   XZ=              0.8602   YZ=             -2.9088

 Normal termination of Gaussian 16 at Tue Dec 12 09:51:13 2023.
