 Gaussian 16, Revision B.01,
 Gaussian 16:  ES64L-G16RevB.01 20-Dec-2017

 ----------------------------
 #p nmr=giao ub3lyp/6-31+g(d)
 ----------------------------

 --------------------------
 File Created by py.Aroma 3
 --------------------------
 Symbolic Z-matrix:
 Charge =  0 Multiplicity = 3

                          Input orientation:
 ---------------------------------------------------------------------
 Center     Atomic      Atomic             Coordinates (Angstroms)
 Number     Number       Type             X           Y           Z
 ---------------------------------------------------------------------
      1          6           0       -0.178731   -0.387094   -0.199828
      2          6           0        0.695290    0.810159   -0.003219
      3          6           0        2.072722    0.865948    0.166201
      4          1           0        2.481988    1.866421    0.291889
      5          6           0        2.981937   -0.183078    0.197446
      6          1           0        4.022254    0.092200    0.344900
      7          6           0        2.726656   -1.551796    0.062028
      8          1           0        3.607259   -2.188507    0.120579
      9          6           0        1.529078   -2.228092   -0.137278
     10          6           0        0.236450   -1.704162   -0.253060
     11          1           0       -0.552476   -2.439048   -0.406645
     12          6           0       -1.508076    0.074833   -0.326189
     13          6           0       -1.491136    1.470226   -0.215718
     14          1           0       -2.354264    2.122168   -0.270919
     15          6           0       -0.175278    1.894378   -0.025331
     16          1           0        1.605207   -3.309132   -0.213586
     17          6           0       -2.737107   -0.772762   -0.488022
     18          1           0       -3.529418   -0.166192   -0.939457
     19          1           0       -2.542565   -1.588136   -1.195032
     20          6           0       -3.239150   -1.357532    0.839148
     21          1           0       -3.477909   -0.558035    1.546269
     22          1           0       -2.474453   -1.988832    1.301513
     23          1           0       -4.138203   -1.962763    0.688398
     24          9           0        0.208516    3.170409    0.115001
     25          0           0       -0.412623    0.847830   -1.144094
     26          0           0       -0.650550    0.697171    0.835980
     27          0           0        1.556443   -0.551958   -1.014152
     28          0           0        1.318814   -0.698932    0.966235
     29          0           0       -0.531586    0.772500   -0.154057
     30          0           0        1.437629   -0.625445   -0.023959
 ---------------------------------------------------------------------

 SCF Done:  E(UB3LYP) =  -563.657833260     A.U. after   22 cycles

      1  C    Isotropic =    40.6580   Anisotropy =    71.3625

      2  C    Isotropic =    48.3584   Anisotropy =    62.0184

      3  C    Isotropic =    78.2582   Anisotropy =    91.1955

      4  H    Isotropic =    30.9191   Anisotropy =     8.0862

      5  C    Isotropic =    39.6773   Anisotropy =   125.7322

      6  H    Isotropic =    29.3124   Anisotropy =     8.7236

      7  C    Isotropic =    79.0700   Anisotropy =    66.7892

      8  H    Isotropic =    31.0635   Anisotropy =     6.5074

      9  C    Isotropic =    39.5464   Anisotropy =   124.5181

     10  C    Isotropic =    76.0827   Anisotropy =    85.8276

     11  H    Isotropic =    31.1305   Anisotropy =     8.7337

     12  C    Isotropic =    27.7512   Anisotropy =   163.5060

     13  C    Isotropic =    87.2043   Anisotropy =    41.6476

     14  H    Isotropic =    30.0946   Anisotropy =     5.2859

     15  C    Isotropic =    14.8729   Anisotropy =    63.1510

     16  H    Isotropic =    29.3589   Anisotropy =     8.5705

     17  C    Isotropic =   168.0882   Anisotropy =    19.9665

     18  H    Isotropic =    31.5607   Anisotropy =     7.6013

     19  H    Isotropic =    31.6984   Anisotropy =     9.5118

     20  C    Isotropic =   175.7614   Anisotropy =    24.2186

     21  H    Isotropic =    31.5502   Anisotropy =     8.0844

     22  H    Isotropic =    31.6805   Anisotropy =     8.5269

     23  H    Isotropic =    31.4847   Anisotropy =     7.9876

     24  F    Isotropic =   293.9612   Anisotropy =   248.5510

     25  Bq   Isotropic =   -25.1605   Anisotropy =    46.8197

     26  Bq   Isotropic =   -25.0929   Anisotropy =    46.6504

     27  Bq   Isotropic =   -31.2241   Anisotropy =    49.0223

     28  Bq   Isotropic =   -31.1853   Anisotropy =    49.2261

     29  Bq   Isotropic =   -31.5775   Anisotropy =    75.7787

     30  Bq   Isotropic =   -41.0561   Anisotropy =    69.8346

 Alpha  occ. eigenvalues --  -24.75153 -10.29868 -10.22611 -10.21440 -10.21363
 Alpha  occ. eigenvalues --  -10.20832 -10.20826 -10.20803 -10.19654 -10.19517
 Alpha  occ. eigenvalues --  -10.19333 -10.18916 -10.18475  -1.25780  -0.90697
 Alpha  occ. eigenvalues --   -0.83476  -0.81016  -0.78205  -0.75099  -0.72070
 Alpha  occ. eigenvalues --   -0.66195  -0.65394  -0.62791  -0.57250  -0.56400
 Alpha  occ. eigenvalues --   -0.53754  -0.51811  -0.50078  -0.48433  -0.47849
 Alpha  occ. eigenvalues --   -0.45986  -0.45554  -0.43787  -0.41973  -0.41016
 Alpha  occ. eigenvalues --   -0.39839  -0.38993  -0.38454  -0.37056  -0.36791
 Alpha  occ. eigenvalues --   -0.35070  -0.34450  -0.33765  -0.31567  -0.25742
 Alpha  occ. eigenvalues --   -0.22321  -0.13079
 Alpha virt. eigenvalues --   -0.05938  -0.00408   0.00846   0.01540   0.02498
 Alpha virt. eigenvalues --    0.02539   0.02989   0.04009   0.04796   0.05400
 Alpha virt. eigenvalues --    0.05807   0.05974   0.06999   0.07741   0.08302

  Beta  occ. eigenvalues --  -24.74969 -10.29357 -10.22145 -10.21315 -10.21270
  Beta  occ. eigenvalues --  -10.20852 -10.20622 -10.20551 -10.19295 -10.19281
  Beta  occ. eigenvalues --  -10.19194 -10.18820 -10.18023  -1.25357  -0.89522
  Beta  occ. eigenvalues --   -0.82557  -0.80212  -0.77552  -0.74313  -0.71061
  Beta  occ. eigenvalues --   -0.65279  -0.64928  -0.62302  -0.56673  -0.55914
  Beta  occ. eigenvalues --   -0.53231  -0.51398  -0.48408  -0.48157  -0.47531
  Beta  occ. eigenvalues --   -0.45688  -0.45283  -0.43488  -0.40889  -0.40611
  Beta  occ. eigenvalues --   -0.39047  -0.38632  -0.36998  -0.36779  -0.36581
  Beta  occ. eigenvalues --   -0.34864  -0.33409  -0.31570  -0.28462  -0.23195
  Beta virt. eigenvalues --   -0.14852  -0.06036  -0.03350  -0.00317   0.00903
  Beta virt. eigenvalues --    0.01567   0.02588   0.02653   0.03178   0.04784
  Beta virt. eigenvalues --    0.05131   0.05745   0.05889   0.06097   0.07509

 Mulliken charges and spin densities:
               1          2
     1  C   -0.127151   0.086154
     2  C    0.053789   0.094263
     3  C   -0.083703   0.280279
     4  H    0.188992  -0.016384
     5  C   -0.303815   0.077006
     6  H    0.182888  -0.005362
     7  C   -0.128364   0.370050
     8  H    0.166059  -0.020627
     9  C   -0.373970   0.113869
    10  C   -0.296500   0.283641
    11  H    0.165691  -0.015766
    12  C    0.299508   0.317503
    13  C   -0.421865   0.080291
    14  H    0.192251  -0.007213
    15  C    0.334402   0.306376
    16  H    0.179483  -0.006705
    17  C   -0.036606   0.000913
    18  H    0.210301   0.002991
    19  H    0.210803   0.008366
    20  C   -0.727111   0.016133
    21  H    0.215991  -0.000505
    22  H    0.217755  -0.000721
    23  H    0.205253   0.004059
    24  F   -0.324082   0.031391
    25  Bq   0.000000   0.000000
    26  Bq   0.000000   0.000000
    27  Bq   0.000000   0.000000
    28  Bq   0.000000   0.000000
    29  Bq   0.000000   0.000000
    30  Bq   0.000000   0.000000
 Sum of Mulliken charges =  -0.00000   2.00000

 Dipole moment (field-independent basis, Debye):
    X=             -1.2288    Y=             -1.4242    Z=             -0.0820  Tot=              1.8828
 Quadrupole moment (field-independent basis, Debye-Ang):
   XX=            -67.9445   YY=            -76.4230   ZZ=            -81.2176
   XY=              0.7993   XZ=              1.4041   YZ=              0.6373

 Normal termination of Gaussian 16 at Wed Mar 15 12:30:08 2023.
